********************************************************************************
*                       GENERAL UTILITY LATTICE PROGRAM                        *
*                                 Julian Gale                                  *
*                       Curtin Institute for Computation                       *
*                    School of Molecular and Life Sciences                     *
*                    Curtin University, Western Australia                      *
********************************************************************************
* Version = 5.2.0 * Last modified =  28th April 2020                           *
********************************************************************************
*  optimise     - perform optimisation run                                     *
*  conp         - constant pressure calculation                                *
********************************************************************************
*  Al/Fe substitutions in LaFeO3  perovskite                                   *
********************************************************************************


  Job Started  at 10:03.28 26th September  2023                               

  Number of CPUs =     1


  Total number of configurations input =      1

********************************************************************************
*  Input for Configuration =   1                                               *
********************************************************************************

  Formula = La8Al5Fe3O24                                                

  Number of irreducible atoms/shells =      80


  Total number atoms/shells =      80

  Dimensionality = 3               :  Bulk   



  Cartesian lattice vectors (Angstroms) :

        7.400000    0.000000    0.000000
        0.000000    7.400000    0.000000
        0.000000    0.000000    7.400000

  Cell parameters (Angstroms/Degrees):

  a =       7.4000    alpha =  90.0000
  b =       7.4000    beta  =  90.0000
  c =       7.4000    gamma =  90.0000

  Initial cell volume =         405.224000 Angs**3

  Temperature of configuration =   0.00     K 

  Pressure of configuration =         0.000 GPa 

  Fractional coordinates of asymmetric unit :

--------------------------------------------------------------------------------
   No.  Atomic       x           y          z         Charge      Occupancy
        Label      (Frac)      (Frac)     (Frac)        (e)         (Frac)  
--------------------------------------------------------------------------------
      1 La    c    0.000000    0.000000    0.000000     5.14900    1.000000    
      2 La    c    0.000000 *  0.000000 *  0.500000 *   5.14900    1.000000    
      3 La    c    0.000000 *  0.500000 *  0.000000 *   5.14900    1.000000    
      4 La    c    0.000000 *  0.500000 *  0.500000 *   5.14900    1.000000    
      5 La    c    0.500000 *  0.000000 *  0.000000 *   5.14900    1.000000    
      6 La    c    0.500000 *  0.000000 *  0.500000 *   5.14900    1.000000    
      7 La    c    0.500000 *  0.500000 *  0.000000 *   5.14900    1.000000    
      8 La    c    0.500000 *  0.500000 *  0.500000 *   5.14900    1.000000    
      9 Al    c    0.250000 *  0.250000 *  0.250000 *   0.04300    1.000000    
     10 Al    c    0.250000 *  0.250000 *  0.750000 *   0.04300    1.000000    
     11 Al    c    0.250000 *  0.750000 *  0.250000 *   0.04300    1.000000    
     12 Fe    c    0.250000 *  0.750000 *  0.750000 *   1.97100    1.000000    
     13 Fe    c    0.750000 *  0.250000 *  0.250000 *   1.97100    1.000000    
     14 Al    c    0.750000 *  0.250000 *  0.750000 *   0.04300    1.000000    
     15 Al    c    0.750000 *  0.750000 *  0.250000 *   0.04300    1.000000    
     16 Fe    c    0.750000 *  0.750000 *  0.750000 *   1.97100    1.000000    
     17 O     c    0.250000 *  0.250000 *  0.000000 *   0.51300    1.000000    
     18 O     c    0.250000 *  0.250000 *  0.500000 *   0.51300    1.000000    
     19 O     c    0.250000 *  0.750000 *  0.000000 *   0.51300    1.000000    
     20 O     c    0.250000 *  0.750000 *  0.500000 *   0.51300    1.000000    
     21 O     c    0.750000 *  0.250000 *  0.000000 *   0.51300    1.000000    
     22 O     c    0.750000 *  0.250000 *  0.500000 *   0.51300    1.000000    
     23 O     c    0.750000 *  0.750000 *  0.000000 *   0.51300    1.000000    
     24 O     c    0.750000 *  0.750000 *  0.500000 *   0.51300    1.000000    
     25 O     c    0.000000 *  0.250000 *  0.250000 *   0.51300    1.000000    
     26 O     c    0.000000 *  0.250000 *  0.750000 *   0.51300    1.000000    
     27 O     c    0.000000 *  0.750000 *  0.250000 *   0.51300    1.000000    
     28 O     c    0.000000 *  0.750000 *  0.750000 *   0.51300    1.000000    
     29 O     c    0.500000 *  0.250000 *  0.250000 *   0.51300    1.000000    
     30 O     c    0.500000 *  0.250000 *  0.750000 *   0.51300    1.000000    
     31 O     c    0.500000 *  0.750000 *  0.250000 *   0.51300    1.000000    
     32 O     c    0.500000 *  0.750000 *  0.750000 *   0.51300    1.000000    
     33 O     c    0.250000 *  0.000000 *  0.250000 *   0.51300    1.000000    
     34 O     c    0.250000 *  0.000000 *  0.750000 *   0.51300    1.000000    
     35 O     c    0.250000 *  0.500000 *  0.250000 *   0.51300    1.000000    
     36 O     c    0.250000 *  0.500000 *  0.750000 *   0.51300    1.000000    
     37 O     c    0.750000 *  0.000000 *  0.250000 *   0.51300    1.000000    
     38 O     c    0.750000 *  0.000000 *  0.750000 *   0.51300    1.000000    
     39 O     c    0.750000 *  0.500000 *  0.250000 *   0.51300    1.000000    
     40 O     c    0.750000 *  0.500000 *  0.750000 *   0.51300    1.000000    
     41 La    s    0.000000 *  0.000000 *  0.000000 *  -2.14900    1.000000    
     42 La    s    0.000000 *  0.000000 *  0.500000 *  -2.14900    1.000000    
     43 La    s    0.000000 *  0.500000 *  0.000000 *  -2.14900    1.000000    
     44 La    s    0.000000 *  0.500000 *  0.500000 *  -2.14900    1.000000    
     45 La    s    0.500000 *  0.000000 *  0.000000 *  -2.14900    1.000000    
     46 La    s    0.500000 *  0.000000 *  0.500000 *  -2.14900    1.000000    
     47 La    s    0.500000 *  0.500000 *  0.000000 *  -2.14900    1.000000    
     48 La    s    0.500000 *  0.500000 *  0.500000 *  -2.14900    1.000000    
     49 Al    s    0.250000 *  0.250000 *  0.250000 *   2.95700    1.000000    
     50 Al    s    0.250000 *  0.250000 *  0.750000 *   2.95700    1.000000    
     51 Al    s    0.250000 *  0.750000 *  0.250000 *   2.95700    1.000000    
     52 Fe    s    0.250000 *  0.750000 *  0.750000 *   1.02900    1.000000    
     53 Fe    s    0.750000 *  0.250000 *  0.250000 *   1.02900    1.000000    
     54 Al    s    0.750000 *  0.250000 *  0.750000 *   2.95700    1.000000    
     55 Al    s    0.750000 *  0.750000 *  0.250000 *   2.95700    1.000000    
     56 Fe    s    0.750000 *  0.750000 *  0.750000 *   1.02900    1.000000    
     57 O     s    0.250000 *  0.250000 *  0.000000 *  -2.51300    1.000000    
     58 O     s    0.250000 *  0.250000 *  0.500000 *  -2.51300    1.000000    
     59 O     s    0.250000 *  0.750000 *  0.000000 *  -2.51300    1.000000    
     60 O     s    0.250000 *  0.750000 *  0.500000 *  -2.51300    1.000000    
     61 O     s    0.750000 *  0.250000 *  0.000000 *  -2.51300    1.000000    
     62 O     s    0.750000 *  0.250000 *  0.500000 *  -2.51300    1.000000    
     63 O     s    0.750000 *  0.750000 *  0.000000 *  -2.51300    1.000000    
     64 O     s    0.750000 *  0.750000 *  0.500000 *  -2.51300    1.000000    
     65 O     s    0.000000 *  0.250000 *  0.250000 *  -2.51300    1.000000    
     66 O     s    0.000000 *  0.250000 *  0.750000 *  -2.51300    1.000000    
     67 O     s    0.000000 *  0.750000 *  0.250000 *  -2.51300    1.000000    
     68 O     s    0.000000 *  0.750000 *  0.750000 *  -2.51300    1.000000    
     69 O     s    0.500000 *  0.250000 *  0.250000 *  -2.51300    1.000000    
     70 O     s    0.500000 *  0.250000 *  0.750000 *  -2.51300    1.000000    
     71 O     s    0.500000 *  0.750000 *  0.250000 *  -2.51300    1.000000    
     72 O     s    0.500000 *  0.750000 *  0.750000 *  -2.51300    1.000000    
     73 O     s    0.250000 *  0.000000 *  0.250000 *  -2.51300    1.000000    
     74 O     s    0.250000 *  0.000000 *  0.750000 *  -2.51300    1.000000    
     75 O     s    0.250000 *  0.500000 *  0.250000 *  -2.51300    1.000000    
     76 O     s    0.250000 *  0.500000 *  0.750000 *  -2.51300    1.000000    
     77 O     s    0.750000 *  0.000000 *  0.250000 *  -2.51300    1.000000    
     78 O     s    0.750000 *  0.000000 *  0.750000 *  -2.51300    1.000000    
     79 O     s    0.750000 *  0.500000 *  0.250000 *  -2.51300    1.000000    
     80 O     s    0.750000 *  0.500000 *  0.750000 *  -2.51300    1.000000    
--------------------------------------------------------------------------------



********************************************************************************
*  General input information                                                   *
********************************************************************************

  Species output for all configurations : 

--------------------------------------------------------------------------------
  Species    Type    Atomic    Atomic    Charge       Radii (Angs)     Library
                     Number     Mass       (e)     Cova   Ionic  VDW   Symbol
--------------------------------------------------------------------------------
    Fe       Core       26      55.85   1.971000   1.340  0.000  2.000          
    Fe       Shell      26       0.00   1.029000   1.340  0.000  2.000          
    Al       Core       13      26.98   0.043000   1.350  0.000  2.050          
    Al       Shell      13       0.00   2.957000   1.350  0.000  2.050          
    La       Core       57     138.91   5.149000   1.870  0.000  2.790          
    La       Shell      57       0.00  -2.149000   1.870  0.000  2.790          
    O        Core        8      16.00   0.513000   0.730  0.000  1.360          
    O        Shell       8       0.00  -2.513000   0.730  0.000  1.360          
--------------------------------------------------------------------------------


  Lattice summation method               =    Ewald          (3-D)
                                         =    Parry          (2-D)
                                         =    Saunders et al (1-D)
  Accuracy factor for lattice sums       =   12.000


  Analytic derivatives to be used

  Time limit = Infinity

  Maximum range for interatomic potentials =    100000.000000 Angstroms

  General interatomic potentials :

--------------------------------------------------------------------------------
Atom  Types   Potential      Parameter       Value         Units   Cutoffs(Ang)
  1     2                                                            Min /  Max 
--------------------------------------------------------------------------------
O    s Fe   s Buckingham    Buckingham A     3219.3350    eV        0.000 10.000
                            Buckingham rho  0.26410000    Ang       
                            Buckingham C     0.0000000    eV*Ang^6  
--------------------------------------------------------------------------------
O    s Al   s Buckingham    Buckingham A     2409.5050    eV        0.000 10.000
                            Buckingham rho  0.26490000    Ang       
                            Buckingham C     0.0000000    eV*Ang^6  
--------------------------------------------------------------------------------
O    s La   s Buckingham    Buckingham A     5436.8270    eV        0.000 10.000
                            Buckingham rho  0.29390000    Ang       
                            Buckingham C     0.0000000    eV*Ang^6  
--------------------------------------------------------------------------------
O    s O    s Buckingham    Buckingham A     25.410000    eV        0.000 12.000
                            Buckingham rho  0.69370000    Ang       
                            Buckingham C     32.320000    eV*Ang^6  
--------------------------------------------------------------------------------
Fe   c Fe   s Spring (c-s)  Spring k 2       179.58000    eV*Ang^-2 0.000  0.800
                            Spring k 4       0.0000000    eV*Ang^-4 
--------------------------------------------------------------------------------
Al   c Al   s Spring (c-s)  Spring k 2       403.98000    eV*Ang^-2 0.000  0.800
                            Spring k 4       0.0000000    eV*Ang^-4 
--------------------------------------------------------------------------------
La   c La   s Spring (c-s)  Spring k 2       173.90000    eV*Ang^-2 0.000  0.800
                            Spring k 4       0.0000000    eV*Ang^-4 
--------------------------------------------------------------------------------
O    c O    s Spring (c-s)  Spring k 2       20.530000    eV*Ang^-2 0.000  0.800
                            Spring k 4       0.0000000    eV*Ang^-4 
--------------------------------------------------------------------------------

********************************************************************************
*  Output for configuration   1                                                *
********************************************************************************


  Components of energy : 

--------------------------------------------------------------------------------
  Interatomic potentials     =         254.90433707 eV    
  Monopole - monopole (real) =        -714.63043649 eV    
  Monopole - monopole (recip)=        -672.57146413 eV    
  Monopole - monopole (total)=       -1387.20190062 eV    
--------------------------------------------------------------------------------
  Total lattice energy       =       -1132.29756355 eV    
--------------------------------------------------------------------------------
  Total lattice energy       =         -109249.4061 kJ/(mole unit cells)
--------------------------------------------------------------------------------


  Number of variables =      243

  Maximum number of calculations  =          1000
  Maximum Hessian update interval =            10
  Maximum step size               =   1.000000000
  Maximum parameter tolerance     =   0.000010000
  Maximum function  tolerance     =   0.000010000
  Maximum gradient  tolerance     =   0.001000000
  Maximum gradient  component     =   0.010000000

  Symmetry not applied to optimisation

  Cell parameters to be optimised using strains

  Newton-Raphson optimiser to be used

  BFGS hessian update to be used

  Lower half triangular hessian to be used

  Start of bulk optimisation :

  Cycle:      0 Energy:     -1132.297564  Gnorm:      0.889124  CPU:    0.125
  ** Hessian calculated **
  Cycle:      1 Energy:     -1139.907785  Gnorm:      0.036584  CPU:    0.219
  Cycle:      2 Energy:     -1139.926329  Gnorm:      0.004356  CPU:    0.312
  Cycle:      3 Energy:     -1139.926743  Gnorm:      0.001321  CPU:    0.375
  Cycle:      4 Energy:     -1139.926755  Gnorm:      0.000660  CPU:    0.438

  MSI Archive (version 3) written as c0003_3D.arc



  **** Optimisation achieved ****


  Final energy =   -1139.92675621 eV
  Final Gnorm  =       0.00004255

  Components of energy : 

--------------------------------------------------------------------------------
  Interatomic potentials     =         191.13299949 eV    
  Monopole - monopole (real) =         -43.24724442 eV    
  Monopole - monopole (recip)=       -1287.81251127 eV    
  Monopole - monopole (total)=       -1331.05975569 eV    
--------------------------------------------------------------------------------
  Total lattice energy       =       -1139.92675621 eV    
--------------------------------------------------------------------------------
  Total lattice energy       =         -109985.5066 kJ/(mole unit cells)
--------------------------------------------------------------------------------

  Final fractional coordinates of atoms :

--------------------------------------------------------------------------------
   No.  Atomic        x           y          z          Radius
        Label       (Frac)      (Frac)     (Frac)       (Angs) 
--------------------------------------------------------------------------------
     1  La    c     0.000000    0.000000    0.000000    0.000000
     2  La    c     1.000000    0.000000    0.496872    0.000000
     3  La    c     0.000000    0.496872    1.000000    0.000000
     4  La    c     0.000000    0.496872    0.496872    0.000000
     5  La    c     0.496593    0.000000    0.000000    0.000000
     6  La    c     0.496593    0.000000    0.496872    0.000000
     7  La    c     0.496593    0.496872    0.000000    0.000000
     8  La    c     0.496593    0.496872    0.496872    0.000000
     9  Al    c     0.248297    0.248436    0.248436    0.000000
    10  Al    c     0.248297    0.248436    0.748436    0.000000
    11  Al    c     0.248297    0.748436    0.248436    0.000000
    12  Fe    c     0.248297    0.748436    0.748436    0.000000
    13  Fe    c     0.748297    0.248436    0.248436    0.000000
    14  Al    c     0.748297    0.248436    0.748436    0.000000
    15  Al    c     0.748297    0.748436    0.248436    0.000000
    16  Fe    c     0.748297    0.748436    0.748436    0.000000
    17  O     c     0.248297    0.248436    0.999432    0.000000
    18  O     c     0.248297    0.248436    0.497440    0.000000
    19  O     c     0.248297    0.748436    0.003826    0.000000
    20  O     c     0.248297    0.748436    0.493047    0.000000
    21  O     c     0.748297    0.248436    0.994345    0.000000
    22  O     c     0.748297    0.248436    0.502527    0.000000
    23  O     c     0.748297    0.748436    0.003890    0.000000
    24  O     c     0.748297    0.748436    0.492983    0.000000
    25  O     c     0.003231    0.248436    0.248436    0.000000
    26  O     c     0.999820    0.248436    0.748436    0.000000
    27  O     c     0.999820    0.748436    0.248436    0.000000
    28  O     c     0.998583    0.748436    0.748436    0.000000
    29  O     c     0.493362    0.248436    0.248436    0.000000
    30  O     c     0.496773    0.248436    0.748436    0.000000
    31  O     c     0.496773    0.748436    0.248436    0.000000
    32  O     c     0.498011    0.748436    0.748436    0.000000
    33  O     c     0.248297    0.999432    0.248436    0.000000
    34  O     c     0.248297    0.003826    0.748436    0.000000
    35  O     c     0.248297    0.497440    0.248436    0.000000
    36  O     c     0.248297    0.493047    0.748436    0.000000
    37  O     c     0.748297    0.994345    0.248436    0.000000
    38  O     c     0.748297    0.003890    0.748436    0.000000
    39  O     c     0.748297    0.502527    0.248436    0.000000
    40  O     c     0.748297    0.492983    0.748436    0.000000
    41  La    s     0.999673    0.999700    0.999700    0.000000
    42  La    s     0.999673    0.999700    0.497172    0.000000
    43  La    s     0.999673    0.497172    0.999700    0.000000
    44  La    s     0.999673    0.497172    0.497172    0.000000
    45  La    s     0.496920    0.999700    0.999700    0.000000
    46  La    s     0.496920    0.999700    0.497172    0.000000
    47  La    s     0.496920    0.497172    0.999700    0.000000
    48  La    s     0.496920    0.497172    0.497172    0.000000
    49  Al    s     0.248297    0.248436    0.248436    0.000000
    50  Al    s     0.248297    0.248436    0.748436    0.000000
    51  Al    s     0.248297    0.748436    0.248436    0.000000
    52  Fe    s     0.248297    0.748436    0.748436    0.000000
    53  Fe    s     0.748297    0.248436    0.248436    0.000000
    54  Al    s     0.748297    0.248436    0.748436    0.000000
    55  Al    s     0.748297    0.748436    0.248436    0.000000
    56  Fe    s     0.748297    0.748436    0.748436    0.000000
    57  O     s     0.248297    0.248436    0.000240    0.000000
    58  O     s     0.248297    0.248436    0.496632    0.000000
    59  O     s     0.248297    0.748436    0.004703    0.000000
    60  O     s     0.248297    0.748436    0.492170    0.000000
    61  O     s     0.748297    0.248436    0.994789    0.000000
    62  O     s     0.748297    0.248436    0.502083    0.000000
    63  O     s     0.748297    0.748436    0.004840    0.000000
    64  O     s     0.748297    0.748436    0.492032    0.000000
    65  O     s     0.003718    0.248436    0.248436    0.000000
    66  O     s     0.000976    0.248436    0.748436    0.000000
    67  O     s     0.000976    0.748436    0.248436    0.000000
    68  O     s     0.999011    0.748436    0.748436    0.000000
    69  O     s     0.492875    0.248436    0.248436    0.000000
    70  O     s     0.495617    0.248436    0.748436    0.000000
    71  O     s     0.495617    0.748436    0.248436    0.000000
    72  O     s     0.497582    0.748436    0.748436    0.000000
    73  O     s     0.248297    0.000240    0.248436    0.000000
    74  O     s     0.248297    0.004703    0.748436    0.000000
    75  O     s     0.248297    0.496632    0.248436    0.000000
    76  O     s     0.248297    0.492170    0.748436    0.000000
    77  O     s     0.748297    0.994789    0.248436    0.000000
    78  O     s     0.748297    0.004840    0.748436    0.000000
    79  O     s     0.748297    0.502083    0.248436    0.000000
    80  O     s     0.748297    0.492032    0.748436    0.000000
--------------------------------------------------------------------------------

  Final Cartesian lattice vectors (Angstroms) :

        7.725429    0.000000    0.000000
        0.000000    7.707729   -0.000000
        0.000000   -0.000000    7.707729


  Final cell parameters and derivatives :

--------------------------------------------------------------------------------
       a            7.725429 Angstrom     dE/de1(xx)     0.002700 eV/strain
       b            7.707729 Angstrom     dE/de2(yy)     0.002340 eV/strain
       c            7.707729 Angstrom     dE/de3(zz)     0.002340 eV/strain
       alpha       90.000000 Degrees      dE/de4(yz)     0.000000 eV/strain
       beta        90.000000 Degrees      dE/de5(xz)    -0.000000 eV/strain
       gamma       90.000000 Degrees      dE/de6(xy)     0.000000 eV/strain
--------------------------------------------------------------------------------

  Primitive cell volume =           458.960650 Angs**3

  Density of cell =      6.504367 g/cm**3

  Non-primitive cell volume =           458.960650 Angs**3


  Final internal derivatives :

--------------------------------------------------------------------------------
   No.  Atomic          a             b             c           Radius
        Label          (eV)          (eV)          (eV)        (eV/Angs)
--------------------------------------------------------------------------------
      1 La    c       0.000000      0.000000      0.000000      0.000000
      2 La    c       0.000611      0.000567     -0.000567      0.000000
      3 La    c       0.000611     -0.000567      0.000567      0.000000
      4 La    c       0.000611     -0.000567     -0.000567      0.000000
      5 La    c      -0.000611      0.000567      0.000567      0.000000
      6 La    c      -0.000611      0.000567     -0.000567      0.000000
      7 La    c      -0.000611     -0.000567      0.000567      0.000000
      8 La    c      -0.000611     -0.000567     -0.000567      0.000000
      9 Al    c       0.000000     -0.000000      0.000000      0.000000
     10 Al    c       0.000000      0.000000      0.000000      0.000000
     11 Al    c       0.000000     -0.000000     -0.000000      0.000000
     12 Fe    c      -0.000000     -0.000000     -0.000000      0.000000
     13 Fe    c       0.000000     -0.000000     -0.000000      0.000000
     14 Al    c       0.000000      0.000000     -0.000000      0.000000
     15 Al    c       0.000000      0.000000     -0.000000      0.000000
     16 Fe    c       0.000000      0.000000     -0.000000      0.000000
     17 O     c      -0.000000     -0.000000     -0.000178      0.000000
     18 O     c       0.000000      0.000000      0.000178      0.000000
     19 O     c       0.000000     -0.000000     -0.000239      0.000000
     20 O     c       0.000000     -0.000000      0.000239      0.000000
     21 O     c       0.000000     -0.000000     -0.000237      0.000000
     22 O     c      -0.000000      0.000000      0.000237      0.000000
     23 O     c       0.000000      0.000000     -0.000266      0.000000
     24 O     c      -0.000000     -0.000000      0.000266      0.000000
     25 O     c      -0.000203     -0.000000     -0.000000      0.000000
     26 O     c      -0.000263      0.000000      0.000000      0.000000
     27 O     c      -0.000263      0.000000     -0.000000      0.000000
     28 O     c      -0.000497     -0.000000     -0.000000      0.000000
     29 O     c       0.000203      0.000000     -0.000000      0.000000
     30 O     c       0.000263     -0.000000     -0.000000      0.000000
     31 O     c       0.000263     -0.000000     -0.000000      0.000000
     32 O     c       0.000497      0.000000     -0.000000      0.000000
     33 O     c       0.000000     -0.000178     -0.000000      0.000000
     34 O     c       0.000000     -0.000239     -0.000000      0.000000
     35 O     c       0.000000      0.000178      0.000000      0.000000
     36 O     c      -0.000000      0.000239      0.000000      0.000000
     37 O     c       0.000000     -0.000237     -0.000000      0.000000
     38 O     c      -0.000000     -0.000266     -0.000000      0.000000
     39 O     c      -0.000000      0.000237      0.000000      0.000000
     40 O     c       0.000000      0.000266     -0.000000      0.000000
     41 La    s      -0.000981     -0.000396     -0.000396      0.000000
     42 La    s      -0.000981     -0.000396      0.000396      0.000000
     43 La    s      -0.000981      0.000396     -0.000396      0.000000
     44 La    s      -0.000981      0.000396      0.000396      0.000000
     45 La    s       0.000981     -0.000396     -0.000396      0.000000
     46 La    s       0.000981     -0.000396      0.000396      0.000000
     47 La    s       0.000981      0.000396     -0.000396      0.000000
     48 La    s       0.000981      0.000396      0.000396      0.000000
     49 Al    s      -0.000000     -0.000000      0.000000      0.000000
     50 Al    s       0.000000      0.000000      0.000000      0.000000
     51 Al    s       0.000000     -0.000000     -0.000000      0.000000
     52 Fe    s      -0.000000     -0.000000      0.000000      0.000000
     53 Fe    s       0.000000     -0.000000      0.000000      0.000000
     54 Al    s       0.000000     -0.000000      0.000000      0.000000
     55 Al    s       0.000000     -0.000000     -0.000000      0.000000
     56 Fe    s      -0.000000      0.000000      0.000000      0.000000
     57 O     s       0.000000      0.000000     -0.000055      0.000000
     58 O     s      -0.000000     -0.000000      0.000055      0.000000
     59 O     s      -0.000000      0.000000     -0.001677      0.000000
     60 O     s      -0.000000      0.000000      0.001677      0.000000
     61 O     s      -0.000000      0.000000      0.003169      0.000000
     62 O     s       0.000000     -0.000000     -0.003169      0.000000
     63 O     s      -0.000000     -0.000000      0.001101      0.000000
     64 O     s       0.000000      0.000000     -0.001101      0.000000
     65 O     s      -0.001715      0.000000      0.000000      0.000000
     66 O     s      -0.000403     -0.000000     -0.000000      0.000000
     67 O     s      -0.000403      0.000000      0.000000      0.000000
     68 O     s       0.001846      0.000000      0.000000      0.000000
     69 O     s       0.001715     -0.000000      0.000000      0.000000
     70 O     s       0.000403      0.000000      0.000000      0.000000
     71 O     s       0.000403      0.000000      0.000000      0.000000
     72 O     s      -0.001846     -0.000000      0.000000      0.000000
     73 O     s       0.000000     -0.000055      0.000000      0.000000
     74 O     s      -0.000000     -0.001677      0.000000      0.000000
     75 O     s      -0.000000      0.000055     -0.000000      0.000000
     76 O     s       0.000000      0.001677      0.000000      0.000000
     77 O     s      -0.000000      0.003169      0.000000      0.000000
     78 O     s       0.000000      0.001101      0.000000      0.000000
     79 O     s       0.000000     -0.003169     -0.000000      0.000000
     80 O     s      -0.000000     -0.001101      0.000000      0.000000
--------------------------------------------------------------------------------
  Maximum abs         0.001846      0.003169      0.003169      0.000000
--------------------------------------------------------------------------------


  Time to end of optimisation =       0.5000 seconds


  Peak dynamic memory used =       3.23 MB 


  Timing analysis for GULP :

--------------------------------------------------------------------------------
  Task / Subroutine                                          Time (Seconds)
--------------------------------------------------------------------------------
  Calculation of reciprocal space energy and derivatives          0.0312
  Calculation of real space energy and derivatives                0.4375
--------------------------------------------------------------------------------
  Total CPU time                                                  0.5000
--------------------------------------------------------------------------------


  XTL file written as c0003.xtl
  Job Finished at 10:03.29 26th September  2023                               

