********************************************************************************
*                       GENERAL UTILITY LATTICE PROGRAM                        *
*                                 Julian Gale                                  *
*                       Curtin Institute for Computation                       *
*                           Department of Chemistry                            *
*                    Curtin University, Western Australia                      *
********************************************************************************
* Version = 4.5.3 * Last modified =  29th July 2017                            *
********************************************************************************
*  optimise     - perform optimisation run                                     *
*  conp         - constant pressure calculation                                *
********************************************************************************
*  Al/Fe substitutions in LaFeO3  perovskite                                   *
********************************************************************************


  Job Started  at 17:21.31  4th November   2018                               

  Number of CPUs =     1

  Host name      = eslogin001                              


  Total number of configurations input =   1

********************************************************************************
*  Input for Configuration =   1                                               *
********************************************************************************

  Formula = Al3Fe13O24                                                  

  Number of irreducible atoms/shells =      80


  Total number atoms/shells =      80

  Dimensionality = 3               :  Bulk   



  Cartesian lattice vectors (Angstroms) :

        7.400000    0.000000    0.000000
        0.000000    7.400000    0.000000
        0.000000    0.000000    7.400000

  Cell parameters (Angstroms/Degrees):

  a =       7.4000    alpha =  90.0000
  b =       7.4000    beta  =  90.0000
  c =       7.4000    gamma =  90.0000

  Initial cell volume =         405.224000 Angs**3

  Temperature of configuration =  0.000     K 

  Pressure of configuration =         0.000 GPa 

  Fractional coordinates of asymmetric unit :

--------------------------------------------------------------------------------
   No.  Atomic       x           y          z         Charge      Occupancy
        Label      (Frac)      (Frac)     (Frac)        (e)         (Frac)  
--------------------------------------------------------------------------------
      1 Al    c    0.000000    0.000000    0.000000     0.04300    1.000000    
      2 Al    c    0.000000 *  0.000000 *  0.500000 *   0.04300    1.000000    
      3 Al    c    0.000000 *  0.500000 *  0.000000 *   0.04300    1.000000    
      4 Fe    c    0.000000 *  0.500000 *  0.500000 *   1.97100    1.000000    
      5 Fe    c    0.500000 *  0.000000 *  0.000000 *   1.97100    1.000000    
      6 Fe    c    0.500000 *  0.000000 *  0.500000 *   1.97100    1.000000    
      7 Fe    c    0.500000 *  0.500000 *  0.000000 *   1.97100    1.000000    
      8 Fe    c    0.500000 *  0.500000 *  0.500000 *   1.97100    1.000000    
      9 Fe    c    0.250000 *  0.250000 *  0.250000 *   1.97100    1.000000    
     10 Fe    c    0.250000 *  0.250000 *  0.750000 *   1.97100    1.000000    
     11 Fe    c    0.250000 *  0.750000 *  0.250000 *   1.97100    1.000000    
     12 Fe    c    0.250000 *  0.750000 *  0.750000 *   1.97100    1.000000    
     13 Fe    c    0.750000 *  0.250000 *  0.250000 *   1.97100    1.000000    
     14 Fe    c    0.750000 *  0.250000 *  0.750000 *   1.97100    1.000000    
     15 Fe    c    0.750000 *  0.750000 *  0.250000 *   1.97100    1.000000    
     16 Fe    c    0.750000 *  0.750000 *  0.750000 *   1.97100    1.000000    
     17 O     c    0.250000 *  0.250000 *  0.000000 *   0.51300    1.000000    
     18 O     c    0.250000 *  0.250000 *  0.500000 *   0.51300    1.000000    
     19 O     c    0.250000 *  0.750000 *  0.000000 *   0.51300    1.000000    
     20 O     c    0.250000 *  0.750000 *  0.500000 *   0.51300    1.000000    
     21 O     c    0.750000 *  0.250000 *  0.000000 *   0.51300    1.000000    
     22 O     c    0.750000 *  0.250000 *  0.500000 *   0.51300    1.000000    
     23 O     c    0.750000 *  0.750000 *  0.000000 *   0.51300    1.000000    
     24 O     c    0.750000 *  0.750000 *  0.500000 *   0.51300    1.000000    
     25 O     c    0.000000 *  0.250000 *  0.250000 *   0.51300    1.000000    
     26 O     c    0.000000 *  0.250000 *  0.750000 *   0.51300    1.000000    
     27 O     c    0.000000 *  0.750000 *  0.250000 *   0.51300    1.000000    
     28 O     c    0.000000 *  0.750000 *  0.750000 *   0.51300    1.000000    
     29 O     c    0.500000 *  0.250000 *  0.250000 *   0.51300    1.000000    
     30 O     c    0.500000 *  0.250000 *  0.750000 *   0.51300    1.000000    
     31 O     c    0.500000 *  0.750000 *  0.250000 *   0.51300    1.000000    
     32 O     c    0.500000 *  0.750000 *  0.750000 *   0.51300    1.000000    
     33 O     c    0.250000 *  0.000000 *  0.250000 *   0.51300    1.000000    
     34 O     c    0.250000 *  0.000000 *  0.750000 *   0.51300    1.000000    
     35 O     c    0.250000 *  0.500000 *  0.250000 *   0.51300    1.000000    
     36 O     c    0.250000 *  0.500000 *  0.750000 *   0.51300    1.000000    
     37 O     c    0.750000 *  0.000000 *  0.250000 *   0.51300    1.000000    
     38 O     c    0.750000 *  0.000000 *  0.750000 *   0.51300    1.000000    
     39 O     c    0.750000 *  0.500000 *  0.250000 *   0.51300    1.000000    
     40 O     c    0.750000 *  0.500000 *  0.750000 *   0.51300    1.000000    
     41 Al    s    0.000000 *  0.000000 *  0.000000 *   2.95700    1.000000    
     42 Al    s    0.000000 *  0.000000 *  0.500000 *   2.95700    1.000000    
     43 Al    s    0.000000 *  0.500000 *  0.000000 *   2.95700    1.000000    
     44 Fe    s    0.000000 *  0.500000 *  0.500000 *   1.02900    1.000000    
     45 Fe    s    0.500000 *  0.000000 *  0.000000 *   1.02900    1.000000    
     46 Fe    s    0.500000 *  0.000000 *  0.500000 *   1.02900    1.000000    
     47 Fe    s    0.500000 *  0.500000 *  0.000000 *   1.02900    1.000000    
     48 Fe    s    0.500000 *  0.500000 *  0.500000 *   1.02900    1.000000    
     49 Fe    s    0.250000 *  0.250000 *  0.250000 *   1.02900    1.000000    
     50 Fe    s    0.250000 *  0.250000 *  0.750000 *   1.02900    1.000000    
     51 Fe    s    0.250000 *  0.750000 *  0.250000 *   1.02900    1.000000    
     52 Fe    s    0.250000 *  0.750000 *  0.750000 *   1.02900    1.000000    
     53 Fe    s    0.750000 *  0.250000 *  0.250000 *   1.02900    1.000000    
     54 Fe    s    0.750000 *  0.250000 *  0.750000 *   1.02900    1.000000    
     55 Fe    s    0.750000 *  0.750000 *  0.250000 *   1.02900    1.000000    
     56 Fe    s    0.750000 *  0.750000 *  0.750000 *   1.02900    1.000000    
     57 O     s    0.250000 *  0.250000 *  0.000000 *  -2.51300    1.000000    
     58 O     s    0.250000 *  0.250000 *  0.500000 *  -2.51300    1.000000    
     59 O     s    0.250000 *  0.750000 *  0.000000 *  -2.51300    1.000000    
     60 O     s    0.250000 *  0.750000 *  0.500000 *  -2.51300    1.000000    
     61 O     s    0.750000 *  0.250000 *  0.000000 *  -2.51300    1.000000    
     62 O     s    0.750000 *  0.250000 *  0.500000 *  -2.51300    1.000000    
     63 O     s    0.750000 *  0.750000 *  0.000000 *  -2.51300    1.000000    
     64 O     s    0.750000 *  0.750000 *  0.500000 *  -2.51300    1.000000    
     65 O     s    0.000000 *  0.250000 *  0.250000 *  -2.51300    1.000000    
     66 O     s    0.000000 *  0.250000 *  0.750000 *  -2.51300    1.000000    
     67 O     s    0.000000 *  0.750000 *  0.250000 *  -2.51300    1.000000    
     68 O     s    0.000000 *  0.750000 *  0.750000 *  -2.51300    1.000000    
     69 O     s    0.500000 *  0.250000 *  0.250000 *  -2.51300    1.000000    
     70 O     s    0.500000 *  0.250000 *  0.750000 *  -2.51300    1.000000    
     71 O     s    0.500000 *  0.750000 *  0.250000 *  -2.51300    1.000000    
     72 O     s    0.500000 *  0.750000 *  0.750000 *  -2.51300    1.000000    
     73 O     s    0.250000 *  0.000000 *  0.250000 *  -2.51300    1.000000    
     74 O     s    0.250000 *  0.000000 *  0.750000 *  -2.51300    1.000000    
     75 O     s    0.250000 *  0.500000 *  0.250000 *  -2.51300    1.000000    
     76 O     s    0.250000 *  0.500000 *  0.750000 *  -2.51300    1.000000    
     77 O     s    0.750000 *  0.000000 *  0.250000 *  -2.51300    1.000000    
     78 O     s    0.750000 *  0.000000 *  0.750000 *  -2.51300    1.000000    
     79 O     s    0.750000 *  0.500000 *  0.250000 *  -2.51300    1.000000    
     80 O     s    0.750000 *  0.500000 *  0.750000 *  -2.51300    1.000000    
--------------------------------------------------------------------------------



********************************************************************************
*  General input information                                                   *
********************************************************************************

  Species output for all configurations : 

--------------------------------------------------------------------------------
  Species    Type    Atomic    Atomic    Charge       Radii (Angs)     Library
                     Number     Mass       (e)     Cova   Ionic  VDW   Symbol
--------------------------------------------------------------------------------
    Fe       Core       26      55.85   1.971000   1.340  0.000  2.000          
    Fe       Shell      26       0.00   1.029000   1.340  0.000  2.000          
    Al       Core       13      26.98   0.043000   1.350  0.000  2.050          
    Al       Shell      13       0.00   2.957000   1.350  0.000  2.050          
    La       Core       57     138.91   5.149000   1.870  0.000  0.000          
    La       Shell      57       0.00  -2.149000   1.870  0.000  0.000          
    O        Core        8      16.00   0.513000   0.730  0.000  1.360          
    O        Shell       8       0.00  -2.513000   0.730  0.000  1.360          
--------------------------------------------------------------------------------


  Lattice summation method               =    Ewald          (3-D)
                                         =    Parry          (2-D)
                                         =    Saunders et al (1-D)
  Accuracy factor for lattice sums       =   12.000


  Time limit = Infinity

  Maximum range for interatomic potentials =    100000.000000 Angstroms

  General interatomic potentials :

--------------------------------------------------------------------------------
Atom  Types   Potential      Parameter       Value         Units   Cutoffs(Ang)
  1     2                                                            Min /  Max 
--------------------------------------------------------------------------------
O    s Fe   s Buckingham    Buckingham A     3219.3350    eV        0.000 10.000
                            Buckingham rho  0.26410000    Ang       
                            Buckingham C     0.0000000    eV*Ang^6  
--------------------------------------------------------------------------------
O    s Al   s Buckingham    Buckingham A     2409.5050    eV        0.000 10.000
                            Buckingham rho  0.26490000    Ang       
                            Buckingham C     0.0000000    eV*Ang^6  
--------------------------------------------------------------------------------
O    s La   s Buckingham    Buckingham A     5436.8270    eV        0.000 10.000
                            Buckingham rho  0.29390000    Ang       
                            Buckingham C     0.0000000    eV*Ang^6  
--------------------------------------------------------------------------------
O    s O    s Buckingham    Buckingham A     25.410000    eV        0.000 12.000
                            Buckingham rho  0.69370000    Ang       
                            Buckingham C     32.320000    eV*Ang^6  
--------------------------------------------------------------------------------
Fe   c Fe   s Spring (c-s)  Spring k 2       179.58000    eV*Ang^-2 0.000  0.800
                            Spring k 4       0.0000000    eV*Ang^-4 
--------------------------------------------------------------------------------
Al   c Al   s Spring (c-s)  Spring k 2       403.98000    eV*Ang^-2 0.000  0.800
                            Spring k 4       0.0000000    eV*Ang^-4 
--------------------------------------------------------------------------------
La   c La   s Spring (c-s)  Spring k 2       173.90000    eV*Ang^-2 0.000  0.800
                            Spring k 4       0.0000000    eV*Ang^-4 
--------------------------------------------------------------------------------
O    c O    s Spring (c-s)  Spring k 2       20.530000    eV*Ang^-2 0.000  0.800
                            Spring k 4       0.0000000    eV*Ang^-4 
--------------------------------------------------------------------------------

********************************************************************************
*  Output for configuration   1                                                *
********************************************************************************


  Components of energy : 

--------------------------------------------------------------------------------
  Interatomic potentials     =         218.40843565 eV    
  Monopole - monopole (real) =        -714.63043649 eV    
  Monopole - monopole (recip)=        -672.57146413 eV    
  Monopole - monopole (total)=       -1387.20190062 eV    
--------------------------------------------------------------------------------
  Total lattice energy       =       -1168.79346497 eV    
--------------------------------------------------------------------------------
  Total lattice energy       =         -112770.7027 kJ/(mole unit cells)
--------------------------------------------------------------------------------


  Number of variables =      243

  Maximum number of calculations  =          1000
  Maximum Hessian update interval =            10
  Maximum step size               =   1.000000000
  Maximum parameter tolerance     =   0.000010000
  Maximum function  tolerance     =   0.000010000
  Maximum gradient  tolerance     =   0.001000000
  Maximum gradient  component     =   0.010000000

  Symmetry not applied to optimisation

  Cell parameters to be optimised using strains

  Newton-Raphson optimiser to be used

  BFGS hessian update to be used

  Start of bulk optimisation :

  Cycle:      0 Energy:     -1168.793465  Gnorm:      0.023445  CPU:    0.088
  ** Hessian calculated **
  Cycle:      1 Energy:     -1168.811918  Gnorm:      0.000313  CPU:    0.184

  MSI Archive (version 3) written as c0001_3D.arc                            



  **** Optimisation achieved ****


  Final energy =   -1168.81191946 eV
  Final Gnorm  =       0.00000953

  Components of energy : 

--------------------------------------------------------------------------------
  Interatomic potentials     =         217.91679524 eV    
  Monopole - monopole (real) =        -631.91384754 eV    
  Monopole - monopole (recip)=        -754.81486716 eV    
  Monopole - monopole (total)=       -1386.72871470 eV    
--------------------------------------------------------------------------------
  Total lattice energy       =       -1168.81191946 eV    
--------------------------------------------------------------------------------
  Total lattice energy       =         -112772.4833 kJ/(mole unit cells)
--------------------------------------------------------------------------------

  Final fractional coordinates of atoms :

--------------------------------------------------------------------------------
   No.  Atomic        x           y          z          Radius
        Label       (Frac)      (Frac)     (Frac)       (Angs) 
--------------------------------------------------------------------------------
     1  Al    c     0.000000    0.000000    0.000000    0.000000
     2  Al    c     0.000000    1.000000    0.500000    0.000000
     3  Al    c     0.000000    0.500000    0.000000    0.000000
     4  Fe    c     0.000000    0.500000    0.500000    0.000000
     5  Fe    c     0.500000    1.000000    0.000000    0.000000
     6  Fe    c     0.500000    0.000000    0.500000    0.000000
     7  Fe    c     0.500000    0.500000    0.000000    0.000000
     8  Fe    c     0.500000    0.500000    0.500000    0.000000
     9  Fe    c     0.248828    0.249608    0.249608    0.000000
    10  Fe    c     0.248828    0.249608    0.750392    0.000000
    11  Fe    c     0.248828    0.750392    0.249608    0.000000
    12  Fe    c     0.248828    0.750392    0.750392    0.000000
    13  Fe    c     0.751172    0.249608    0.249608    0.000000
    14  Fe    c     0.751172    0.249608    0.750392    0.000000
    15  Fe    c     0.751172    0.750392    0.249608    0.000000
    16  Fe    c     0.751172    0.750392    0.750392    0.000000
    17  O     c     0.247815    0.249839    0.000000    0.000000
    18  O     c     0.248602    0.249049    0.500000    0.000000
    19  O     c     0.247815    0.750161    0.000000    0.000000
    20  O     c     0.248602    0.750951    0.500000    0.000000
    21  O     c     0.752185    0.249839    0.000000    0.000000
    22  O     c     0.751398    0.249049    0.500000    0.000000
    23  O     c     0.752185    0.750161    0.000000    0.000000
    24  O     c     0.751398    0.750951    0.500000    0.000000
    25  O     c     0.000000    0.248966    0.248966    0.000000
    26  O     c     0.000000    0.248966    0.751034    0.000000
    27  O     c     0.000000    0.751034    0.248966    0.000000
    28  O     c     0.000000    0.751034    0.751034    0.000000
    29  O     c     0.500000    0.249750    0.249750    0.000000
    30  O     c     0.500000    0.249750    0.750250    0.000000
    31  O     c     0.500000    0.750250    0.249750    0.000000
    32  O     c     0.500000    0.750250    0.750250    0.000000
    33  O     c     0.247815    1.000000    0.249839    0.000000
    34  O     c     0.247815    1.000000    0.750161    0.000000
    35  O     c     0.248602    0.500000    0.249049    0.000000
    36  O     c     0.248602    0.500000    0.750951    0.000000
    37  O     c     0.752185    1.000000    0.249839    0.000000
    38  O     c     0.752185    1.000000    0.750161    0.000000
    39  O     c     0.751398    0.500000    0.249049    0.000000
    40  O     c     0.751398    0.500000    0.750951    0.000000
    41  Al    s     0.000000    0.000000    0.000000    0.000000
    42  Al    s     0.000000    1.000000    0.500000    0.000000
    43  Al    s     0.000000    0.500000    0.000000    0.000000
    44  Fe    s     0.000000    0.500000    0.500000    0.000000
    45  Fe    s     0.500000    1.000000    0.000000    0.000000
    46  Fe    s     0.500000    0.000000    0.500000    0.000000
    47  Fe    s     0.500000    0.500000    0.000000    0.000000
    48  Fe    s     0.500000    0.500000    0.500000    0.000000
    49  Fe    s     0.249146    0.249715    0.249715    0.000000
    50  Fe    s     0.249146    0.249715    0.750285    0.000000
    51  Fe    s     0.249146    0.750285    0.249715    0.000000
    52  Fe    s     0.249146    0.750285    0.750285    0.000000
    53  Fe    s     0.750854    0.249715    0.249715    0.000000
    54  Fe    s     0.750854    0.249715    0.750285    0.000000
    55  Fe    s     0.750854    0.750285    0.249715    0.000000
    56  Fe    s     0.750854    0.750285    0.750285    0.000000
    57  O     s     0.248238    0.249802    0.000000    0.000000
    58  O     s     0.248762    0.249272    0.500000    0.000000
    59  O     s     0.248238    0.750198    0.000000    0.000000
    60  O     s     0.248762    0.750728    0.500000    0.000000
    61  O     s     0.751762    0.249802    0.000000    0.000000
    62  O     s     0.751238    0.249272    0.500000    0.000000
    63  O     s     0.751762    0.750198    0.000000    0.000000
    64  O     s     0.751238    0.750728    0.500000    0.000000
    65  O     s     0.000000    0.249200    0.249200    0.000000
    66  O     s     0.000000    0.249200    0.750800    0.000000
    67  O     s     0.000000    0.750800    0.249200    0.000000
    68  O     s     0.000000    0.750800    0.750800    0.000000
    69  O     s     0.500000    0.249722    0.249722    0.000000
    70  O     s     0.500000    0.249722    0.750278    0.000000
    71  O     s     0.500000    0.750278    0.249722    0.000000
    72  O     s     0.500000    0.750278    0.750278    0.000000
    73  O     s     0.248238    1.000000    0.249802    0.000000
    74  O     s     0.248238    1.000000    0.750198    0.000000
    75  O     s     0.248762    0.500000    0.249272    0.000000
    76  O     s     0.248762    0.500000    0.750728    0.000000
    77  O     s     0.751762    1.000000    0.249802    0.000000
    78  O     s     0.751762    1.000000    0.750198    0.000000
    79  O     s     0.751238    0.500000    0.249272    0.000000
    80  O     s     0.751238    0.500000    0.750728    0.000000
--------------------------------------------------------------------------------

  Final Cartesian lattice vectors (Angstroms) :

        7.402676   -0.000000   -0.000000
       -0.000000    7.402518   -0.000000
       -0.000000   -0.000000    7.402518


  Final cell parameters and derivatives :

--------------------------------------------------------------------------------
       a            7.402676 Angstrom     dE/de1(xx)     0.000157 eV/strain
       b            7.402518 Angstrom     dE/de2(yy)     0.000066 eV/strain
       c            7.402518 Angstrom     dE/de3(zz)     0.000066 eV/strain
       alpha       90.000000 Degrees      dE/de4(yz)    -0.000000 eV/strain
       beta        90.000000 Degrees      dE/de5(xz)    -0.000000 eV/strain
       gamma       90.000000 Degrees      dE/de6(xy)    -0.000000 eV/strain
--------------------------------------------------------------------------------

  Primitive cell volume =           405.646423 Angs**3

  Density of cell =      4.875470 g/cm**3

  Non-primitive cell volume =           405.646423 Angs**3


  Final internal derivatives :

--------------------------------------------------------------------------------
   No.  Atomic          a             b             c           Radius
        Label          (eV)          (eV)          (eV)        (eV/Angs)
--------------------------------------------------------------------------------
      1 Al    c       0.000000      0.000000      0.000000      0.000000
      2 Al    c      -0.000000      0.000000     -0.000000      0.000000
      3 Al    c      -0.000000     -0.000000      0.000000      0.000000
      4 Fe    c       0.000000      0.000000      0.000000      0.000000
      5 Fe    c      -0.000000     -0.000000     -0.000000      0.000000
      6 Fe    c       0.000000     -0.000000     -0.000000      0.000000
      7 Fe    c       0.000000      0.000000     -0.000000      0.000000
      8 Fe    c      -0.000000     -0.000000     -0.000000      0.000000
      9 Fe    c      -0.000232     -0.000053     -0.000053      0.000000
     10 Fe    c      -0.000232     -0.000053      0.000053      0.000000
     11 Fe    c      -0.000232      0.000053     -0.000053      0.000000
     12 Fe    c      -0.000232      0.000053      0.000053      0.000000
     13 Fe    c       0.000232     -0.000053     -0.000053      0.000000
     14 Fe    c       0.000232     -0.000053      0.000053      0.000000
     15 Fe    c       0.000232      0.000053     -0.000053      0.000000
     16 Fe    c       0.000232      0.000053      0.000053      0.000000
     17 O     c      -0.000060     -0.000023      0.000000      0.000000
     18 O     c       0.000014      0.000022     -0.000000      0.000000
     19 O     c      -0.000060      0.000023     -0.000000      0.000000
     20 O     c       0.000014     -0.000022      0.000000      0.000000
     21 O     c       0.000060     -0.000023     -0.000000      0.000000
     22 O     c      -0.000014      0.000022     -0.000000      0.000000
     23 O     c       0.000060      0.000023      0.000000      0.000000
     24 O     c      -0.000014     -0.000022     -0.000000      0.000000
     25 O     c      -0.000000     -0.000082     -0.000082      0.000000
     26 O     c      -0.000000     -0.000082      0.000082      0.000000
     27 O     c      -0.000000      0.000082     -0.000082      0.000000
     28 O     c      -0.000000      0.000082      0.000082      0.000000
     29 O     c       0.000000     -0.000001     -0.000001      0.000000
     30 O     c       0.000000     -0.000001      0.000001      0.000000
     31 O     c      -0.000000      0.000001     -0.000001      0.000000
     32 O     c      -0.000000      0.000001      0.000001      0.000000
     33 O     c      -0.000060      0.000000     -0.000023      0.000000
     34 O     c      -0.000060     -0.000000      0.000023      0.000000
     35 O     c       0.000014     -0.000000      0.000022      0.000000
     36 O     c       0.000014     -0.000000     -0.000022      0.000000
     37 O     c       0.000060     -0.000000     -0.000023      0.000000
     38 O     c       0.000060     -0.000000      0.000023      0.000000
     39 O     c      -0.000014     -0.000000      0.000022      0.000000
     40 O     c      -0.000014     -0.000000     -0.000022      0.000000
     41 Al    s      -0.000000     -0.000000     -0.000000      0.000000
     42 Al    s      -0.000000      0.000000     -0.000000      0.000000
     43 Al    s      -0.000000     -0.000000     -0.000000      0.000000
     44 Fe    s       0.000000     -0.000000     -0.000000      0.000000
     45 Fe    s       0.000000     -0.000000     -0.000000      0.000000
     46 Fe    s      -0.000000      0.000000     -0.000000      0.000000
     47 Fe    s      -0.000000     -0.000000     -0.000000      0.000000
     48 Fe    s       0.000000     -0.000000     -0.000000      0.000000
     49 Fe    s       0.000745      0.000007      0.000007      0.000000
     50 Fe    s       0.000745      0.000007     -0.000007      0.000000
     51 Fe    s       0.000745     -0.000007      0.000007      0.000000
     52 Fe    s       0.000745     -0.000007     -0.000007      0.000000
     53 Fe    s      -0.000745      0.000007      0.000007      0.000000
     54 Fe    s      -0.000745      0.000007     -0.000007      0.000000
     55 Fe    s      -0.000745     -0.000007      0.000007      0.000000
     56 Fe    s      -0.000745     -0.000007     -0.000007      0.000000
     57 O     s       0.000083      0.000115     -0.000000      0.000000
     58 O     s      -0.000075     -0.000062      0.000000      0.000000
     59 O     s       0.000083     -0.000115     -0.000000      0.000000
     60 O     s      -0.000075      0.000062      0.000000      0.000000
     61 O     s      -0.000083      0.000115     -0.000000      0.000000
     62 O     s       0.000075     -0.000062      0.000000      0.000000
     63 O     s      -0.000083     -0.000115     -0.000000      0.000000
     64 O     s       0.000075      0.000062      0.000000      0.000000
     65 O     s       0.000000      0.000095      0.000095      0.000000
     66 O     s       0.000000      0.000095     -0.000095      0.000000
     67 O     s       0.000000     -0.000095      0.000095      0.000000
     68 O     s      -0.000000     -0.000095     -0.000095      0.000000
     69 O     s      -0.000000      0.000036      0.000036      0.000000
     70 O     s      -0.000000      0.000036     -0.000036      0.000000
     71 O     s      -0.000000     -0.000036      0.000036      0.000000
     72 O     s       0.000000     -0.000036     -0.000036      0.000000
     73 O     s       0.000083     -0.000000      0.000115      0.000000
     74 O     s       0.000083     -0.000000     -0.000115      0.000000
     75 O     s      -0.000075      0.000000     -0.000062      0.000000
     76 O     s      -0.000075     -0.000000      0.000062      0.000000
     77 O     s      -0.000083     -0.000000      0.000115      0.000000
     78 O     s      -0.000083     -0.000000     -0.000115      0.000000
     79 O     s       0.000075     -0.000000     -0.000062      0.000000
     80 O     s       0.000075     -0.000000      0.000062      0.000000
--------------------------------------------------------------------------------
  Maximum abs         0.000745      0.000115      0.000115      0.000000
--------------------------------------------------------------------------------


  Time to end of optimisation =       0.2560 seconds


  Peak dynamic memory used =       1.90 MB 


  Timing analysis for GULP :

--------------------------------------------------------------------------------
  Task / Subroutine                                          Time (Seconds)
--------------------------------------------------------------------------------
  Calculation of reciprocal space energy and derivatives          0.0160
  Calculation of real space energy and derivatives                0.2280
  Calculation of matrix inversion                                 0.0080
--------------------------------------------------------------------------------
  Total CPU time                                                  0.2560
--------------------------------------------------------------------------------


  XTL file written as c0001.xtl                     
  Job Finished at 17:21.31  4th November   2018                               

